<?xml version="1.0" encoding="UTF-8"?>

<!-- generated on 2025-03-19 23:37:48 by Eclipse SUMO GUI Version 1.19.0
<configuration xmlns:xsi="http://www.w3.org/2001/XMLSchema-instance" xsi:noNamespaceSchemaLocation="http://sumo.dlr.de/xsd/sumoConfiguration.xsd">

    <input>
        <net-file value="../model/Network.net.xml"/>
        <route-files value="../model/CarRoutes.rou.xml,../model/BusRoutes.rou.xml"/>
        <additional-files value="../model/BusStops.add.xml"/>
    </input>

    <output>
        <emission-output value="../model/logs/Emissions.xml"/>
        <summary-output value="../model/logs/Log_summary.xml"/>
        <summary-output.period value="300"/>
        <tripinfo-output value="../model/logs/TripInfos.xml"/>
    </output>

    <time>
        <begin value="0"/>
        <end value="86400"/>
        <step-length value="0.25"/>
    </time>

    <processing>
        <ignore-junction-blocker value="0.1"/>
        <time-to-teleport value="-1"/>
    </processing>

    <report>
        <verbose value="true"/>
        <no-step-log value="true"/>
    </report>

    <emissions>
        <device.emissions.period value="10"/>
    </emissions>

    <traci_server>
        <remote-port value="54781"/>
    </traci_server>

    <gui_only>
        <quit-on-end value="true"/>
        <start value="true"/>
    </gui_only>

</configuration>
-->

<emission-export xmlns:xsi="http://www.w3.org/2001/XMLSchema-instance" xsi:noNamespaceSchemaLocation="http://sumo.dlr.de/xsd/emission_file.xsd">
    <timestep time="0.00">
        <vehicle id="VEH_1" eclass="HBEFA4/PC_diesel_Euro-5_EA189_after_software_update" CO2="1294.00" CO="0.11" HC="0.14" NOx="2.88" PMx="0.03" fuel="415.90" electricity="0.00" noise="55.94" route="route_E6_A2" type="sumo_car" waiting="0.00" lane="-1169441386_1" pos="5.10" speed="0.00" angle="316.12" x="1373.41" y="1153.52"/>
    </timestep>
    <timestep time="10.00">
        <vehicle id="VEH_1" eclass="HBEFA4/PC_diesel_Euro-5_EA189_after_software_update" CO2="5032.95" CO="0.41" HC="0.14" NOx="11.67" PMx="0.34" fuel="1617.63" electricity="0.00" noise="65.84" route="route_E6_A2" type="sumo_car" waiting="0.00" lane="-1169441386_2" pos="64.14" speed="11.28" angle="319.60" x="1331.47" y="1195.39"/>
        <vehicle id="VEH_2" eclass="HBEFA4/RT_gt20-26t_Euro-III" CO2="14923.81" CO="26.16" HC="5.48" NOx="130.91" PMx="3.93" fuel="4795.61" electricity="0.00" noise="72.67" route="route_E13_A2" type="sumo_truck" waiting="0.00" lane="-E4_1" pos="37.51" speed="4.77" angle="150.29" x="1478.52" y="1381.39"/>
        <vehicle id="VEH_3" eclass="HBEFA4/PC_petrol_Euro-1" CO2="3464.83" CO="7.23" HC="2.20" NOx="4.44" PMx="0.15" fuel="1123.30" electricity="0.00" noise="63.38" route="route_E13_A2" type="sumo_car" waiting="0.00" lane="-E4_1" pos="13.87" speed="4.37" angle="150.29" x="1466.81" y="1401.93"/>
        <vehicle id="VEH_4" eclass="HBEFA4/PC_petrol_Euro-5" CO2="2386.44" CO="0.04" HC="0.00" NOx="0.47" PMx="0.02" fuel="773.72" electricity="0.00" noise="61.97" route="route_E13_A2" type="sumo_car" waiting="0.00" lane="-E4_1" pos="5.18" speed="0.34" angle="150.29" x="1462.50" y="1409.48"/>
        <vehicle id="VEH_5" eclass="HBEFA4/PC_petrol_Euro-4" CO2="3937.12" CO="12.16" HC="0.08" NOx="1.18" PMx="0.21" fuel="1276.35" electricity="0.00" noise="64.59" route="route_E21_A17" type="sumo_car" waiting="0.00" lane=":10814792349_4_0" pos="21.89" speed="6.90" angle="158.02" x="2015.18" y="1707.41"/>
        <vehicle id="VEH_6" eclass="HBEFA4/LCV_CNG_petrol_N1-III_Euro-4_(P)" CO2="2479.87" CO="2.59" HC="0.01" NOx="1.27" PMx="0.06" fuel="804.11" electricity="0.00" noise="59.82" route="route_E22_A1" type="sumo_transporter" waiting="0.00" lane=":10814792349_3_0" pos="2.92" speed="2.04" angle="173.15" x="2009.10" y="1725.38"/>
    </timestep>
    <timestep time="20.00">
        <vehicle id="VEH_2" eclass="HBEFA4/RT_gt20-26t_Euro-III" CO2="22993.90" CO="27.38" HC="6.04" NOx="189.71" PMx="4.80" fuel="7388.94" electricity="0.00" noise="75.15" route="route_E13_A2" type="sumo_truck" waiting="0.00" lane="-E3_1" pos="47.51" speed="9.92" angle="229.08" x="1450.58" y="1326.52"/>
        <vehicle id="VEH_3" eclass="HBEFA4/PC_petrol_Euro-1" CO2="4054.31" CO="23.73" HC="2.52" NOx="6.34" PMx="0.37" fuel="1314.36" electricity="0.00" noise="64.50" route="route_E13_A2" type="sumo_car" waiting="0.00" lane="-E3_1" pos="20.85" speed="9.50" angle="229.08" x="1470.73" y="1343.98"/>
        <vehicle id="VEH_4" eclass="HBEFA4/PC_petrol_Euro-5" CO2="1889.05" CO="5.49" HC="0.03" NOx="0.35" PMx="0.25" fuel="612.49" electricity="0.00" noise="61.36" route="route_E13_A2" type="sumo_car" waiting="0.00" lane=":J1_4_0" pos="10.77" speed="8.81" angle="180.92" x="1487.55" y="1359.18"/>
        <vehicle id="VEH_6" eclass="HBEFA4/LCV_CNG_petrol_N1-III_Euro-4_(P)" CO2="0.00" CO="0.00" HC="0.00" NOx="0.00" PMx="0.00" fuel="0.00" electricity="0.00" noise="50.68" route="route_E22_A1" type="sumo_transporter" waiting="0.00" lane="E8_1" pos="22.18" speed="5.90" angle="173.25" x="2000.97" y="1670.35"/>
        <vehicle id="VEH_7" eclass="HBEFA4/PC_petrol_Euro-6d" CO2="1275.00" CO="3.24" HC="0.01" NOx="0.00" PMx="0.00" fuel="413.20" electricity="0.00" noise="55.94" route="route_E1_A16" type="sumo_car" waiting="0.00" lane="-183419042#1_1" pos="5.10" speed="0.00" angle="136.72" x="1193.05" y="1341.57"/>
    </timestep>
    <timestep time="30.00">
        <vehicle id="VEH_10" eclass="HBEFA4/PC_diesel_Euro-6d" CO2="4934.99" CO="0.25" HC="0.35" NOx="0.74" PMx="0.24" fuel="1586.00" electricity="0.00" noise="65.10" route="route_E12_A16" type="sumo_car" waiting="0.00" lane="-E4_2" pos="36.23" speed="8.48" angle="150.29" x="1480.70" y="1384.03"/>
        <vehicle id="VEH_11" eclass="HBEFA4/RT_le7.5t_Euro-III" CO2="3594.21" CO="15.56" HC="2.56" NOx="29.18" PMx="2.75" fuel="1155.20" electricity="0.00" noise="71.87" route="route_E2_A3" type="sumo_truck" waiting="0.00" lane="-183419042#1_1" pos="19.90" speed="2.26" angle="136.69" x="1203.18" y="1330.83"/>
        <vehicle id="VEH_12" eclass="HBEFA4/PC_diesel_Euro-4_(DPF)" CO2="3350.31" CO="1.07" HC="0.18" NOx="6.85" PMx="0.10" fuel="1076.66" electricity="0.00" noise="62.65" route="route_E7_A16" type="sumo_car" waiting="0.00" lane="-1169441386_1" pos="10.87" speed="3.54" angle="316.12" x="1369.41" y="1157.68"/>
        <vehicle id="VEH_13" eclass="HBEFA4/PC_petrol_Euro-6d" CO2="1275.00" CO="3.24" HC="0.01" NOx="0.00" PMx="0.00" fuel="413.20" electricity="0.00" noise="55.94" route="route_E13_A6" type="sumo_car" waiting="0.00" lane="-E4_1" pos="5.10" speed="0.00" angle="150.29" x="1462.46" y="1409.55"/>
        <vehicle id="VEH_2" eclass="HBEFA4/RT_gt20-26t_Euro-III" CO2="6585.17" CO="17.74" HC="3.91" NOx="57.73" PMx="3.44" fuel="2116.27" electricity="0.00" noise="70.98" route="route_E13_A2" type="sumo_truck" waiting="0.00" lane="-183049933#0_2" pos="2.71" speed="7.99" angle="216.75" x="1388.24" y="1272.33"/>
        <vehicle id="VEH_3" eclass="HBEFA4/PC_petrol_Euro-1" CO2="1782.63" CO="2.62" HC="1.20" NOx="2.89" PMx="0.23" fuel="577.99" electricity="0.00" noise="60.37" route="route_E13_A2" type="sumo_car" waiting="0.00" lane="-38361908#1_1" pos="41.53" speed="8.04" angle="230.27" x="1405.60" y="1291.74"/>
        <vehicle id="VEH_4" eclass="HBEFA4/PC_petrol_Euro-5" CO2="0.00" CO="0.00" HC="0.00" NOx="0.00" PMx="0.00" fuel="0.00" electricity="0.00" noise="59.52" route="route_E13_A2" type="sumo_car" waiting="0.00" lane="-38361908#1_1" pos="25.37" speed="8.18" angle="230.27" x="1418.03" y="1302.07"/>
        <vehicle id="VEH_6" eclass="HBEFA4/LCV_CNG_petrol_N1-III_Euro-4_(P)" CO2="3309.43" CO="22.47" HC="0.10" NOx="1.20" PMx="0.25" fuel="1073.06" electricity="0.00" noise="61.28" route="route_E22_A1" type="sumo_transporter" waiting="0.00" lane="-758088380#0_1" pos="54.71" speed="7.60" angle="235.22" x="1960.93" y="1613.91"/>
        <vehicle id="VEH_7" eclass="HBEFA4/PC_petrol_Euro-6d" CO2="4158.43" CO="8.98" HC="0.13" NOx="0.61" PMx="0.33" fuel="1348.02" electricity="0.00" noise="65.68" route="route_E1_A16" type="sumo_car" waiting="0.00" lane="-183419042#1_1" pos="60.95" speed="10.76" angle="126.29" x="1235.79" y="1306.05"/>
        <vehicle id="VEH_8" eclass="HBEFA4/PC_petrol_Euro-5" CO2="4174.55" CO="37.37" HC="0.21" NOx="0.52" PMx="0.32" fuel="1353.49" electricity="0.00" noise="65.70" route="route_E4_A7" type="sumo_car" waiting="0.00" lane="921020465#1_2" pos="53.19" speed="10.36" angle="107.55" x="1236.73" y="1224.43"/>
        <vehicle id="VEH_9" eclass="HBEFA4/PC_petrol_Euro-4" CO2="4181.75" CO="16.68" HC="0.11" NOx="1.30" PMx="0.25" fuel="1355.66" electricity="0.00" noise="65.04" route="route_E6_A2" type="sumo_car" waiting="0.00" lane="-1169441386_2" pos="34.93" speed="8.16" angle="317.64" x="1350.58" y="1173.15"/>
    </timestep>
    <timestep time="40.00">
        <vehicle id="VEH_10" eclass="HBEFA4/PC_diesel_Euro-6d" CO2="1904.11" CO="0.16" HC="0.08" NOx="0.32" PMx="0.19" fuel="611.86" electricity="0.00" noise="59.96" route="route_E12_A16" type="sumo_car" waiting="0.00" lane=":277830531_6_0" pos="0.26" speed="7.02" angle="67.59" x="1541.18" y="1382.60"/>
        <vehicle id="VEH_11" eclass="HBEFA4/RT_le7.5t_Euro-III" CO2="5926.06" CO="15.65" HC="2.52" NOx="48.42" PMx="2.83" fuel="1904.59" electricity="0.00" noise="74.02" route="route_E2_A3" type="sumo_truck" waiting="0.00" lane="-183419042#1_1" pos="69.81" speed="7.58" angle="126.05" x="1242.95" y="1300.87"/>
        <vehicle id="VEH_12" eclass="HBEFA4/PC_diesel_Euro-4_(DPF)" CO2="1207.45" CO="0.46" HC="0.12" NOx="5.51" PMx="0.00" fuel="388.10" electricity="0.00" noise="55.45" route="route_E7_A16" type="sumo_car" waiting="0.50" lane="-331752492#0_1" pos="0.82" speed="0.00" angle="326.75" x="1325.23" y="1210.27"/>
        <vehicle id="VEH_13" eclass="HBEFA4/PC_petrol_Euro-6d" CO2="2819.47" CO="6.45" HC="0.08" NOx="0.24" PMx="0.25" fuel="913.92" electricity="0.00" noise="62.89" route="route_E13_A6" type="sumo_car" waiting="0.00" lane=":J1_4_0" pos="10.70" speed="8.55" angle="180.19" x="1487.59" y="1359.25"/>
        <vehicle id="VEH_2" eclass="HBEFA4/RT_gt20-26t_Euro-III" CO2="0.00" CO="0.00" HC="0.00" NOx="0.00" PMx="0.00" fuel="0.00" electricity="0.00" noise="57.58" route="route_E13_A2" type="sumo_truck" waiting="0.00" lane="38361907_2" pos="3.07" speed="3.96" angle="240.42" x="1325.39" y="1227.57"/>
        <vehicle id="VEH_3" eclass="HBEFA4/PC_petrol_Euro-1" CO2="0.00" CO="0.00" HC="0.00" NOx="0.00" PMx="0.00" fuel="0.00" electricity="0.00" noise="53.10" route="route_E13_A2" type="sumo_car" waiting="0.00" lane=":cluster_30895398_4465023020_1_1" pos="10.45" speed="5.89" angle="245.02" x="1347.03" y="1238.83"/>
        <vehicle id="VEH_4" eclass="HBEFA4/PC_petrol_Euro-5" CO2="0.00" CO="0.00" HC="0.00" NOx="0.00" PMx="0.00" fuel="0.00" electricity="0.00" noise="51.12" route="route_E13_A2" type="sumo_car" waiting="0.00" lane="-183049933#0_2" pos="40.92" speed="6.21" angle="228.52" x="1359.48" y="1247.22"/>
        <vehicle id="VEH_6" eclass="HBEFA4/LCV_CNG_petrol_N1-III_Euro-4_(P)" CO2="3080.99" CO="18.48" HC="0.08" NOx="1.12" PMx="0.24" fuel="998.98" electricity="0.00" noise="60.99" route="route_E22_A1" type="sumo_transporter" waiting="0.00" lane="-696225646#2_1" pos="16.53" speed="7.62" angle="240.99" x="1896.10" y="1574.59"/>
        <vehicle id="VEH_7" eclass="HBEFA4/PC_petrol_Euro-6d" CO2="1607.64" CO="3.72" HC="0.04" NOx="0.08" PMx="0.36" fuel="521.01" electricity="0.00" noise="63.53" route="route_E1_A16" type="sumo_car" waiting="0.00" lane=":cluster_1934095630_30895401_9_0" pos="25.88" speed="12.65" angle="87.51" x="1323.99" y="1218.43"/>
        <vehicle id="VEH_8" eclass="HBEFA4/PC_petrol_Euro-5" CO2="1391.00" CO="0.00" HC="0.00" NOx="0.32" PMx="0.01" fuel="451.00" electricity="0.00" noise="55.94" route="route_E4_A7" type="sumo_car" waiting="3.25" lane=":1934095618_0_0" pos="5.01" speed="0.00" angle="100.66" x="1299.41" y="1208.49"/>
        <vehicle id="VEH_9" eclass="HBEFA4/PC_petrol_Euro-4" CO2="1521.00" CO="0.00" HC="0.00" NOx="0.61" PMx="0.00" fuel="493.10" electricity="0.00" noise="55.94" route="route_E6_A2" type="sumo_car" waiting="4.50" lane="-331752492#0_2" pos="0.82" speed="0.00" angle="326.77" x="1322.55" y="1208.52"/>
    </timestep>
    <timestep time="50.00">
        <vehicle id="VEH_10" eclass="HBEFA4/PC_diesel_Euro-6d" CO2="2274.28" CO="0.17" HC="0.11" NOx="0.36" PMx="0.19" fuel="730.84" electricity="0.00" noise="60.57" route="route_E12_A16" type="sumo_car" waiting="0.00" lane="758088377#2_1" pos="56.07" speed="7.04" angle="53.12" x="1600.87" y="1418.80"/>
        <vehicle id="VEH_11" eclass="HBEFA4/RT_le7.5t_Euro-III" CO2="0.00" CO="0.00" HC="0.00" NOx="0.00" PMx="0.00" fuel="0.00" electricity="0.00" noise="59.76" route="route_E2_A3" type="sumo_truck" waiting="0.00" lane="26249185#30_1" pos="0.21" speed="5.01" angle="151.28" x="1297.03" y="1230.36"/>
        <vehicle id="VEH_12" eclass="HBEFA4/PC_diesel_Euro-4_(DPF)" CO2="1322.00" CO="0.51" HC="0.13" NOx="5.51" PMx="0.00" fuel="424.90" electricity="0.00" noise="55.94" route="route_E7_A16" type="sumo_car" waiting="10.50" lane="-331752492#0_1" pos="0.82" speed="0.00" angle="326.75" x="1325.23" y="1210.27"/>
        <vehicle id="VEH_13" eclass="HBEFA4/PC_petrol_Euro-6d" CO2="0.00" CO="0.00" HC="0.00" NOx="0.00" PMx="0.00" fuel="0.00" electricity="0.00" noise="58.11" route="route_E13_A6" type="sumo_car" waiting="0.00" lane="-38361908#1_2" pos="35.52" speed="8.37" angle="230.27" x="1412.29" y="1293.14"/>
        <vehicle id="VEH_14" eclass="HBEFA4/PC_petrol_Euro-1" CO2="5052.95" CO="31.57" HC="3.10" NOx="7.72" PMx="0.40" fuel="1638.08" electricity="0.00" noise="66.09" route="route_E4_A18" type="sumo_car" waiting="0.00" lane="921020465#1_2" pos="43.22" speed="9.18" angle="107.55" x="1227.23" y="1227.44"/>
        <vehicle id="VEH_15" eclass="HBEFA4/PC_petrol_Euro-5" CO2="4064.31" CO="26.57" HC="0.15" NOx="0.52" PMx="0.25" fuel="1317.75" electricity="0.00" noise="65.38" route="route_E22_A2" type="sumo_car" waiting="0.00" lane="E7_1" pos="7.22" speed="8.09" angle="202.51" x="2001.70" y="1700.99"/>
        <vehicle id="VEH_16" eclass="HBEFA4/PC_petrol_Euro-6ab" CO2="3316.48" CO="3.98" HC="0.06" NOx="1.15" PMx="0.17" fuel="1075.17" electricity="0.00" noise="63.38" route="route_E4_A18" type="sumo_car" waiting="0.00" lane="921020465#1_2" pos="20.55" speed="5.72" angle="111.37" x="1205.91" y="1235.03"/>
        <vehicle id="VEH_17" eclass="HBEFA4/PC_BEV" CO2="0.00" CO="0.00" HC="0.00" NOx="0.00" PMx="0.13" fuel="0.00" electricity="3.51" noise="63.44" route="route_E12_A16" type="sumo_car" waiting="0.00" lane="-E4_2" pos="15.42" speed="4.85" angle="150.29" x="1470.42" y="1402.05"/>
        <vehicle id="VEH_18" eclass="HBEFA4/PC_PHEV_petrol_Euro-6d_(P)" CO2="1595.07" CO="3.50" HC="0.05" NOx="0.03" PMx="0.07" fuel="517.11" electricity="0.00" noise="61.48" route="route_E4_A7" type="sumo_car" waiting="0.00" lane="921020465#1_2" pos="9.66" speed="2.53" angle="111.37" x="1195.78" y="1238.99"/>
        <vehicle id="VEH_19" eclass="HBEFA4/PC_petrol_Euro-6d-temp" CO2="3119.01" CO="3.16" HC="0.05" NOx="0.03" PMx="0.08" fuel="1011.00" electricity="0.00" noise="62.67" route="route_E11_A18" type="sumo_car" waiting="0.00" lane="758088375#0_1" pos="7.76" speed="2.34" angle="318.47" x="1422.05" y="1259.91"/>
        <vehicle id="VEH_2" eclass="HBEFA4/RT_gt20-26t_Euro-III" CO2="6006.41" CO="24.35" HC="4.69" NOx="62.45" PMx="3.14" fuel="1930.06" electricity="0.00" noise="70.15" route="route_E13_A2" type="sumo_truck" waiting="0.00" lane="38361907_2" pos="5.43" speed="0.74" angle="240.60" x="1323.12" y="1226.35"/>
        <vehicle id="VEH_20" eclass="HBEFA4/PC_petrol_Euro-6ab" CO2="2525.61" CO="0.15" HC="0.03" NOx="1.06" PMx="0.05" fuel="818.84" electricity="0.00" noise="61.21" route="route_E4_A7" type="sumo_car" waiting="0.00" lane="921020465#1_1" pos="5.86" speed="1.18" angle="111.37" x="1191.10" y="1237.39"/>
        <vehicle id="VEH_21" eclass="HBEFA4/PC_petrol_Euro-4" CO2="1521.00" CO="0.00" HC="0.00" NOx="0.61" PMx="0.00" fuel="493.10" electricity="0.00" noise="55.94" route="route_E22_A1" type="sumo_car" waiting="0.00" lane="1162834479#1_1" pos="0.20" speed="0.00" angle="169.40" x="2008.90" y="1728.30"/>
        <vehicle id="VEH_3" eclass="HBEFA4/PC_petrol_Euro-1" CO2="1867.44" CO="0.96" HC="1.40" NOx="2.40" PMx="0.01" fuel="605.48" electricity="0.00" noise="57.77" route="route_E13_A2" type="sumo_car" waiting="0.00" lane=":cluster_30895398_4465023020_1_1" pos="18.99" speed="0.30" angle="243.53" x="1339.16" y="1235.38"/>
        <vehicle id="VEH_4" eclass="HBEFA4/PC_petrol_Euro-5" CO2="2566.02" CO="0.66" HC="0.00" NOx="0.47" PMx="0.04" fuel="831.95" electricity="0.00" noise="62.35" route="route_E13_A2" type="sumo_car" waiting="0.00" lane="-183049933#0_2" pos="45.32" speed="1.31" angle="228.52" x="1356.18" y="1244.30"/>
        <vehicle id="VEH_6" eclass="HBEFA4/LCV_CNG_petrol_N1-III_Euro-4_(P)" CO2="0.00" CO="0.00" HC="0.00" NOx="0.00" PMx="0.00" fuel="0.00" electricity="0.00" noise="59.18" route="route_E22_A1" type="sumo_transporter" waiting="0.00" lane=":cluster_1011603764_10814792332_252503857_458759462_#2more_11_0" pos="0.39" speed="7.54" angle="249.92" x="1826.33" y="1545.61"/>
        <vehicle id="VEH_7" eclass="HBEFA4/PC_petrol_Euro-6d" CO2="1469.88" CO="3.51" HC="0.02" NOx="0.03" PMx="0.24" fuel="476.36" electricity="0.00" noise="60.65" route="route_E1_A16" type="sumo_car" waiting="0.00" lane=":cluster_10947641377_12271808954_12271808955_29027248_#4more_5_0" pos="1.44" speed="8.64" angle="48.94" x="1393.47" y="1272.64"/>
        <vehicle id="VEH_8" eclass="HBEFA4/PC_petrol_Euro-5" CO2="2309.61" CO="0.63" HC="0.00" NOx="0.44" PMx="0.05" fuel="748.82" electricity="0.00" noise="60.98" route="route_E4_A7" type="sumo_car" waiting="0.00" lane=":cluster_1934095630_30895401_6_0" pos="0.17" speed="1.46" angle="100.13" x="1300.61" y="1208.31"/>
        <vehicle id="VEH_9" eclass="HBEFA4/PC_petrol_Euro-4" CO2="1521.00" CO="0.00" HC="0.00" NOx="0.61" PMx="0.00" fuel="493.10" electricity="0.00" noise="55.94" route="route_E6_A2" type="sumo_car" waiting="14.50" lane="-331752492#0_2" pos="0.82" speed="0.00" angle="326.77" x="1322.55" y="1208.52"/>
    </timestep>
    <timestep time="60.00">
        <vehicle id="VEH_10" eclass="HBEFA4/PC_diesel_Euro-6d" CO2="1299.00" CO="0.14" HC="0.00" NOx="0.28" PMx="0.00" fuel="417.40" electricity="0.00" noise="55.94" route="route_E12_A16" type="sumo_car" waiting="2.00" lane="22889927#0_1" pos="31.07" speed="0.00" angle="46.41" x="1635.46" y="1454.08"/>
        <vehicle id="VEH_11" eclass="HBEFA4/RT_le7.5t_Euro-III" CO2="2726.00" CO="11.77" HC="2.03" NOx="21.94" PMx="2.55" fuel="876.20" electricity="0.00" noise="67.11" route="route_E2_A3" type="sumo_truck" waiting="8.75" lane="26249185#30_1" pos="3.21" speed="0.00" angle="150.21" x="1299.08" y="1228.16"/>
        <vehicle id="VEH_12" eclass="HBEFA4/PC_diesel_Euro-4_(DPF)" CO2="1322.00" CO="0.51" HC="0.13" NOx="5.51" PMx="0.00" fuel="424.90" electricity="0.00" noise="55.94" route="route_E7_A16" type="sumo_car" waiting="20.50" lane="-331752492#0_1" pos="0.82" speed="0.00" angle="326.75" x="1325.23" y="1210.27"/>
        <vehicle id="VEH_13" eclass="HBEFA4/PC_petrol_Euro-6d" CO2="1275.00" CO="3.24" HC="0.01" NOx="0.00" PMx="0.00" fuel="413.20" electricity="0.00" noise="55.94" route="route_E13_A6" type="sumo_car" waiting="8.25" lane="-38361908#1_2" pos="42.39" speed="0.00" angle="230.27" x="1406.99" y="1288.73"/>
        <vehicle id="VEH_14" eclass="HBEFA4/PC_petrol_Euro-1" CO2="0.00" CO="0.00" HC="0.00" NOx="0.00" PMx="0.00" fuel="0.00" electricity="0.00" noise="60.33" route="route_E4_A18" type="sumo_car" waiting="0.00" lane="1164287131#0_1" pos="2.20" speed="9.12" angle="54.10" x="1336.49" y="1226.01"/>
        <vehicle id="VEH_15" eclass="HBEFA4/PC_petrol_Euro-5" CO2="1529.83" CO="1.38" HC="0.01" NOx="0.32" PMx="0.23" fuel="496.02" electricity="0.00" noise="60.37" route="route_E22_A2" type="sumo_car" waiting="0.00" lane="-758088380#0_1" pos="32.13" speed="8.20" angle="228.79" x="1979.02" y="1627.61"/>
        <vehicle id="VEH_16" eclass="HBEFA4/PC_petrol_Euro-6ab" CO2="0.00" CO="0.00" HC="0.00" NOx="0.00" PMx="0.00" fuel="0.00" electricity="0.00" noise="62.32" route="route_E4_A18" type="sumo_car" waiting="0.00" lane=":cluster_1934095630_30895401_6_0" pos="8.22" speed="12.70" angle="89.02" x="1308.66" y="1208.45"/>
        <vehicle id="VEH_17" eclass="HBEFA4/PC_BEV" CO2="0.00" CO="0.00" HC="0.00" NOx="0.00" PMx="0.19" fuel="0.00" electricity="2.04" noise="61.03" route="route_E12_A16" type="sumo_car" waiting="0.00" lane="758088377#1_1" pos="12.62" speed="7.25" angle="67.06" x="1521.61" y="1374.56"/>
        <vehicle id="VEH_18" eclass="HBEFA4/PC_PHEV_petrol_Euro-6d_(P)" CO2="1633.22" CO="3.85" HC="0.05" NOx="0.11" PMx="0.37" fuel="529.48" electricity="0.00" noise="63.79" route="route_E4_A7" type="sumo_car" waiting="0.00" lane=":1934095628_1_0" pos="16.94" speed="12.92" angle="100.42" x="1275.49" y="1213.42"/>
        <vehicle id="VEH_19" eclass="HBEFA4/PC_petrol_Euro-6d-temp" CO2="3095.76" CO="3.07" HC="0.05" NOx="0.02" PMx="0.06" fuel="1003.48" electricity="0.00" noise="62.83" route="route_E11_A18" type="sumo_car" waiting="0.00" lane=":cluster_10947641377_12271808954_12271808955_29027248_#4more_3_0" pos="0.31" speed="1.75" angle="318.78" x="1410.44" y="1273.05"/>
        <vehicle id="VEH_2" eclass="HBEFA4/RT_gt20-26t_Euro-III" CO2="13883.60" CO="23.84" HC="5.15" NOx="119.55" PMx="3.92" fuel="4461.41" electricity="0.00" noise="72.18" route="route_E13_A2" type="sumo_truck" waiting="0.00" lane="694116204#1_1" pos="5.21" speed="6.10" angle="271.05" x="1290.08" y="1220.36"/>
        <vehicle id="VEH_20" eclass="HBEFA4/PC_petrol_Euro-6ab" CO2="4808.74" CO="16.01" HC="0.14" NOx="1.39" PMx="0.30" fuel="1558.84" electricity="0.00" noise="66.66" route="route_E4_A7" type="sumo_car" waiting="0.00" lane="921020465#1_2" pos="55.92" speed="10.35" angle="107.55" x="1239.32" y="1223.61"/>
        <vehicle id="VEH_21" eclass="HBEFA4/PC_petrol_Euro-4" CO2="0.00" CO="0.00" HC="0.00" NOx="0.00" PMx="0.00" fuel="0.00" electricity="0.00" noise="53.14" route="route_E22_A1" type="sumo_car" waiting="0.00" lane="E8_1" pos="20.67" speed="7.34" angle="173.25" x="2000.79" y="1671.86"/>
        <vehicle id="VEH_22" eclass="HBEFA4/PC_petrol_Euro-6ab" CO2="3613.53" CO="6.61" HC="0.08" NOx="1.17" PMx="0.21" fuel="1171.44" electricity="0.00" noise="64.15" route="route_E4_A7" type="sumo_car" waiting="0.00" lane="921020465#1_2" pos="30.00" speed="7.34" angle="111.37" x="1214.70" y="1231.59"/>
        <vehicle id="VEH_23" eclass="HBEFA4/PC_petrol_Euro-6d-temp" CO2="2373.42" CO="2.94" HC="0.03" NOx="0.00" PMx="0.03" fuel="769.32" electricity="0.00" noise="60.13" route="route_E11_A18" type="sumo_car" waiting="0.00" lane="758088375#0_1" pos="16.81" speed="0.71" angle="318.47" x="1416.05" y="1266.68"/>
        <vehicle id="VEH_24" eclass="HBEFA4/PC_diesel_Euro-6ab" CO2="3805.47" CO="1.70" HC="0.44" NOx="4.91" PMx="0.13" fuel="1223.01" electricity="0.00" noise="64.27" route="route_E4_A18" type="sumo_car" waiting="0.00" lane="921020465#1_2" pos="14.05" speed="4.49" angle="111.37" x="1199.86" y="1237.40"/>
        <vehicle id="VEH_25" eclass="HBEFA4/MC_4S_gt250cc_Euro-3" CO2="1561.77" CO="0.37" HC="2.50" NOx="0.31" PMx="0.24" fuel="506.13" electricity="0.00" noise="59.88" route="route_E10_A5" type="sumo_motorcycle" waiting="0.00" lane="758088375#0_2" pos="22.16" speed="6.72" angle="318.47" x="1410.11" y="1268.57"/>
        <vehicle id="VEH_26" eclass="HBEFA4/PC_petrol_Euro-4" CO2="2611.76" CO="0.04" HC="0.00" NOx="0.64" PMx="0.01" fuel="846.65" electricity="0.00" noise="62.46" route="route_E3_A1" type="sumo_car" waiting="0.00" lane="921020465#1_2" pos="6.33" speed="0.40" angle="111.37" x="1192.68" y="1240.21"/>
        <vehicle id="VEH_27" eclass="HBEFA4/PC_PHEV_petrol_Euro-6d_(P)" CO2="2124.08" CO="4.03" HC="0.08" NOx="0.11" PMx="0.14" fuel="688.59" electricity="0.00" noise="62.24" route="route_E22_A1" type="sumo_car" waiting="0.00" lane=":10814792349_3_0" pos="10.15" speed="4.79" angle="186.35" x="2008.69" y="1718.20"/>
        <vehicle id="VEH_28" eclass="HBEFA4/LCV_petrol_M+N1-I_Euro-2" CO2="1214.00" CO="0.00" HC="0.37" NOx="1.74" PMx="0.00" fuel="393.40" electricity="0.00" noise="55.94" route="route_E4_A7" type="sumo_transporter" waiting="0.00" lane="921020465#1_1" pos="6.60" speed="0.00" angle="111.37" x="1191.79" y="1237.12"/>
        <vehicle id="VEH_3" eclass="HBEFA4/PC_petrol_Euro-1" CO2="4639.57" CO="26.20" HC="2.84" NOx="7.01" PMx="0.36" fuel="1504.08" electricity="0.00" noise="65.40" route="route_E13_A2" type="sumo_car" waiting="0.00" lane=":cluster_1934095630_30895401_1_1" pos="20.06" speed="8.67" angle="264.03" x="1305.00" y="1216.90"/>
        <vehicle id="VEH_4" eclass="HBEFA4/PC_petrol_Euro-5" CO2="2458.11" CO="8.28" HC="0.05" NOx="0.40" PMx="0.19" fuel="796.98" electricity="0.00" noise="61.57" route="route_E13_A2" type="sumo_car" waiting="0.00" lane=":cluster_1934095630_30895401_1_0" pos="9.69" speed="6.72" angle="245.33" x="1314.24" y="1221.98"/>
        <vehicle id="VEH_6" eclass="HBEFA4/LCV_CNG_petrol_N1-III_Euro-4_(P)" CO2="1916.83" CO="-2.13" HC="-0.01" NOx="0.70" PMx="0.20" fuel="621.47" electricity="0.00" noise="59.45" route="route_E22_A1" type="sumo_transporter" waiting="0.00" lane="-387296014#0_0" pos="10.15" speed="7.50" angle="252.16" x="1755.17" y="1520.95"/>
        <vehicle id="VEH_7" eclass="HBEFA4/PC_petrol_Euro-6d" CO2="5566.99" CO="11.65" HC="0.19" NOx="1.03" PMx="0.38" fuel="1804.69" electricity="0.00" noise="67.90" route="route_E1_A16" type="sumo_car" waiting="0.00" lane="E3_1" pos="19.02" speed="11.93" angle="49.08" x="1463.73" y="1329.45"/>
        <vehicle id="VEH_8" eclass="HBEFA4/PC_petrol_Euro-5" CO2="1564.14" CO="1.44" HC="0.01" NOx="0.33" PMx="0.20" fuel="507.14" electricity="0.00" noise="59.83" route="route_E4_A7" type="sumo_car" waiting="0.00" lane=":cluster_30895398_4465023020_10_0" pos="14.90" speed="7.25" angle="54.02" x="1352.48" y="1237.07"/>
        <vehicle id="VEH_9" eclass="HBEFA4/PC_petrol_Euro-4" CO2="1521.00" CO="0.00" HC="0.00" NOx="0.61" PMx="0.00" fuel="493.10" electricity="0.00" noise="55.94" route="route_E6_A2" type="sumo_car" waiting="24.50" lane="-331752492#0_2" pos="0.82" speed="0.00" angle="326.77" x="1322.55" y="1208.52"/>
    </timestep>
    <timestep time="70.00">
        <vehicle id="VEH_10" eclass="HBEFA4/PC_diesel_Euro-6d" CO2="1299.00" CO="0.14" HC="0.00" NOx="0.28" PMx="0.00" fuel="417.40" electricity="0.00" noise="55.94" route="route_E12_A16" type="sumo_car" waiting="12.00" lane="22889927#0_1" pos="31.07" speed="0.00" angle="46.41" x="1635.46" y="1454.08"/>
        <vehicle id="VEH_11" eclass="HBEFA4/RT_le7.5t_Euro-III" CO2="3062.61" CO="14.43" HC="2.42" NOx="24.71" PMx="2.69" fuel="984.37" electricity="0.00" noise="70.40" route="route_E2_A3" type="sumo_truck" waiting="0.00" lane=":cluster_1934095630_30895401_8_0" pos="0.61" speed="1.22" angle="149.39" x="1300.19" y="1227.00"/>
        <vehicle id="VEH_12" eclass="HBEFA4/PC_diesel_Euro-4_(DPF)" CO2="1322.00" CO="0.51" HC="0.13" NOx="5.51" PMx="0.00" fuel="424.90" electricity="0.00" noise="55.94" route="route_E7_A16" type="sumo_car" waiting="30.50" lane="-331752492#0_1" pos="0.82" speed="0.00" angle="326.75" x="1325.23" y="1210.27"/>
        <vehicle id="VEH_13" eclass="HBEFA4/PC_petrol_Euro-6d" CO2="1275.00" CO="3.24" HC="0.01" NOx="0.00" PMx="0.00" fuel="413.20" electricity="0.00" noise="55.94" route="route_E13_A6" type="sumo_car" waiting="18.25" lane="-38361908#1_2" pos="42.39" speed="0.00" angle="230.27" x="1406.99" y="1288.73"/>
        <vehicle id="VEH_14" eclass="HBEFA4/PC_petrol_Euro-1" CO2="0.00" CO="0.00" HC="0.00" NOx="0.00" PMx="0.00" fuel="0.00" electricity="0.00" noise="52.28" route="route_E4_A18" type="sumo_car" waiting="0.00" lane="183049933#0_1" pos="36.34" speed="0.67" angle="49.04" x="1385.52" y="1265.72"/>
        <vehicle id="VEH_15" eclass="HBEFA4/PC_petrol_Euro-5" CO2="1296.04" CO="-0.99" HC="-0.00" NOx="0.30" PMx="0.23" fuel="420.22" electricity="0.00" noise="59.94" route="route_E22_A2" type="sumo_car" waiting="0.00" lane=":252504189_0_0" pos="0.12" speed="8.17" angle="239.24" x="1910.66" y="1582.66"/>
        <vehicle id="VEH_16" eclass="HBEFA4/PC_petrol_Euro-6ab" CO2="0.00" CO="0.00" HC="0.00" NOx="0.00" PMx="0.00" fuel="0.00" electricity="0.00" noise="51.42" route="route_E4_A18" type="sumo_car" waiting="0.00" lane="183049933#0_1" pos="23.52" speed="4.40" angle="49.04" x="1375.83" y="1257.32"/>
        <vehicle id="VEH_17" eclass="HBEFA4/PC_BEV" CO2="0.00" CO="0.00" HC="0.00" NOx="0.00" PMx="0.19" fuel="0.00" electricity="1.15" noise="59.76" route="route_E12_A16" type="sumo_car" waiting="0.00" lane="758088377#2_1" pos="36.70" speed="7.16" angle="53.12" x="1585.44" y="1407.23"/>
        <vehicle id="VEH_18" eclass="HBEFA4/PC_PHEV_petrol_Euro-6d_(P)" CO2="0.00" CO="0.00" HC="0.00" NOx="0.00" PMx="0.00" fuel="0.00" electricity="0.00" noise="57.58" route="route_E4_A7" type="sumo_car" waiting="0.00" lane="183049933#0_1" pos="5.73" speed="7.49" angle="48.50" x="1362.45" y="1245.59"/>
        <vehicle id="VEH_19" eclass="HBEFA4/PC_petrol_Euro-6d-temp" CO2="3667.51" CO="4.98" HC="0.10" NOx="0.29" PMx="0.24" fuel="1188.72" electricity="0.00" noise="63.71" route="route_E11_A18" type="sumo_car" waiting="0.00" lane=":7079622282_2_0" pos="3.88" speed="7.97" angle="64.07" x="1445.10" y="1315.59"/>
        <vehicle id="VEH_20" eclass="HBEFA4/PC_petrol_Euro-6ab" CO2="0.00" CO="0.00" HC="0.00" NOx="0.00" PMx="0.00" fuel="0.00" electricity="0.00" noise="59.20" route="route_E4_A7" type="sumo_car" waiting="0.00" lane=":cluster_30895398_4465023020_10_0" pos="9.37" speed="9.07" angle="55.87" x="1348.00" y="1233.84"/>