<?xml version="1.0" encoding="UTF-8"?>

<!-- generated on 2025-03-19 23:37:48 by Eclipse SUMO GUI Version 1.19.0
<configuration xmlns:xsi="http://www.w3.org/2001/XMLSchema-instance" xsi:noNamespaceSchemaLocation="http://sumo.dlr.de/xsd/sumoConfiguration.xsd">

    <input>
        <net-file value="../model/Network.net.xml"/>
        <route-files value="../model/CarRoutes.rou.xml,../model/BusRoutes.rou.xml"/>
        <additional-files value="../model/BusStops.add.xml"/>
    </input>

    <output>
        <emission-output value="../model/logs/Emissions.xml"/>
        <summary-output value="../model/logs/Log_summary.xml"/>
        <summary-output.period value="300"/>
        <tripinfo-output value="../model/logs/TripInfos.xml"/>
    </output>

    <time>
        <begin value="0"/>
        <end value="86400"/>
        <step-length value="0.25"/>
    </time>

    <processing>
        <ignore-junction-blocker value="0.1"/>
        <time-to-teleport value="-1"/>
    </processing>

    <report>
        <verbose value="true"/>
        <no-step-log value="true"/>
    </report>

    <emissions>
        <device.emissions.period value="10"/>
    </emissions>

    <traci_server>
        <remote-port value="54781"/>
    </traci_server>

    <gui_only>
        <quit-on-end value="true"/>
        <start value="true"/>
    </gui_only>

</configuration>
-->

<tripinfos xmlns:xsi="http://www.w3.org/2001/XMLSchema-instance" xsi:noNamespaceSchemaLocation="http://sumo.dlr.de/xsd/tripinfo_file.xsd">
    <tripinfo id="VEH_5" depart="4.00" departLane="1162834479#1_1" departPos="0.20" departSpeed="0.00" departDelay="0.00" arrival="16.75" arrivalLane="208691154#0_1" arrivalPos="25.93" arrivalSpeed="13.80" duration="12.75" routeLength="93.29" waitingTime="0.00" waitingCount="0" stopTime="0.00" timeLoss="5.88" rerouteNo="0" devices="tripinfo_VEH_5 emissions_VEH_5" vType="sumo_car@VEH_5" speedFactor="1.03" vaporized="">
        <emissions CO_abs="198.207653" CO2_abs="47479.532233" HC_abs="1.312419" PMx_abs="2.877000" NOx_abs="14.962205" fuel_abs="15392.072489" electricity_abs="0"/>
    </tripinfo>
    <tripinfo id="VEH_1" depart="0.00" departLane="-1169441386_1" departPos="5.10" departSpeed="0.00" departDelay="0.00" arrival="19.50" arrivalLane="694116204#2_2" arrivalPos="45.20" arrivalSpeed="13.80" duration="19.50" routeLength="175.49" waitingTime="0.00" waitingCount="0" stopTime="0.00" timeLoss="6.69" rerouteNo="0" devices="tripinfo_VEH_1 emissions_VEH_1" vType="sumo_car@VEH_1" speedFactor="1.06" vaporized="">
        <emissions CO_abs="6.978493" CO2_abs="71836.659089" HC_abs="2.553176" PMx_abs="4.952991" NOx_abs="143.405324" fuel_abs="23088.608954" electricity_abs="0"/>
    </tripinfo>
    <tripinfo id="VEH_3" depart="6.25" departLane="-E4_1" departPos="5.10" departSpeed="0.00" departDelay="5.25" arrival="66.75" arrivalLane="694116204#2_2" arrivalPos="45.20" arrivalSpeed="13.72" duration="60.50" routeLength="370.12" waitingTime="4.75" waitingCount="1" stopTime="0.00" timeLoss="26.52" rerouteNo="0" devices="tripinfo_VEH_3 emissions_VEH_3" vType="sumo_car@VEH_3" speedFactor="1.01" vaporized="">
        <emissions CO_abs="456.474134" CO2_abs="133877.566480" HC_abs="88.080363" PMx_abs="10.344464" NOx_abs="200.302205" fuel_abs="43404.325628" electricity_abs="0"/>
    </tripinfo>
    <tripinfo id="VEH_2" depart="1.00" departLane="-E4_1" departPos="15.10" departSpeed="0.00" departDelay="0.00" arrival="68.00" arrivalLane="694116204#2_1" arrivalPos="45.20" arrivalSpeed="9.95" duration="67.00" routeLength="360.12" waitingTime="7.75" waitingCount="1" stopTime="0.00" timeLoss="27.36" rerouteNo="0" devices="tripinfo_VEH_2 emissions_VEH_2" vType="sumo_truck@VEH_2" speedFactor="0.97" vaporized="">
        <emissions CO_abs="1468.911862" CO2_abs="748985.856210" HC_abs="313.834985" PMx_abs="238.496877" NOx_abs="6532.991586" fuel_abs="240682.853597" electricity_abs="0"/>
    </tripinfo>
    <tripinfo id="VEH_25" depart="55.00" departLane="758088375#0_1" departPos="2.30" departSpeed="0.00" departDelay="0.00" arrival="68.75" arrivalLane="25973410#1_1" arrivalPos="32.08" arrivalSpeed="6.70" duration="13.75" routeLength="78.09" waitingTime="0.00" waitingCount="0" stopTime="0.00" timeLoss="2.29" rerouteNo="0" devices="tripinfo_VEH_25 emissions_VEH_25" vType="sumo_motorcycle@VEH_25" speedFactor="0.83" vaporized="">
        <emissions CO_abs="3.722890" CO2_abs="19052.473568" HC_abs="23.420979" PMx_abs="2.270880" NOx_abs="3.676682" fuel_abs="6174.798694" electricity_abs="0"/>
    </tripinfo>
    <tripinfo id="VEH_4" depart="9.75" departLane="-E4_1" departPos="5.10" departSpeed="0.00" departDelay="7.75" arrival="70.50" arrivalLane="694116204#2_1" arrivalPos="45.20" arrivalSpeed="12.60" duration="60.75" routeLength="370.12" waitingTime="7.75" waitingCount="1" stopTime="0.00" timeLoss="27.99" rerouteNo="0" devices="tripinfo_VEH_4 emissions_VEH_4" vType="sumo_car@VEH_4" speedFactor="1.08" vaporized="">
        <emissions CO_abs="479.691373" CO2_abs="117765.625099" HC_abs="2.705971" PMx_abs="7.919373" NOx_abs="19.116823" fuel_abs="38182.656328" electricity_abs="0"/>
    </tripinfo>
    <tripinfo id="VEH_31" depart="63.00" departLane="183049957#0_1" departPos="2.30" departSpeed="0.00" departDelay="0.00" arrival="76.75" arrivalLane="331752492#2_1" arrivalPos="66.46" arrivalSpeed="16.22" duration="13.75" routeLength="115.01" waitingTime="0.00" waitingCount="0" stopTime="0.00" timeLoss="5.97" rerouteNo="0" devices="tripinfo_VEH_31 emissions_VEH_31" vType="sumo_motorcycle@VEH_31" speedFactor="1.18" vaporized="">
        <emissions CO_abs="994.161728" CO2_abs="10127.542870" HC_abs="119.405437" PMx_abs="3.632918" NOx_abs="48.759877" fuel_abs="3283.094919" electricity_abs="0"/>
    </tripinfo>
    <tripinfo id="VEH_11" depart="26.00" departLane="-183419042#1_1" departPos="15.10" departSpeed="0.00" departDelay="0.00" arrival="88.25" arrivalLane="331752492#2_1" arrivalPos="66.46" arrivalSpeed="9.96" duration="62.25" routeLength="258.79" waitingTime="16.50" waitingCount="1" stopTime="0.00" timeLoss="36.13" rerouteNo="0" devices="tripinfo_VEH_11 emissions_VEH_11" vType="sumo_truck@VEH_11" speedFactor="1.05" vaporized="">
        <emissions CO_abs="820.944012" CO2_abs="243139.723085" HC_abs="136.505696" PMx_abs="159.225316" NOx_abs="1978.770773" fuel_abs="78146.002846" electricity_abs="0"/>
    </tripinfo>
    <tripinfo id="VEH_26" depart="57.25" departLane="921020465#1_1" departPos="5.10" departSpeed="0.00" departDelay="2.25" arrival="88.50" arrivalLane="183419043#1_1" arrivalPos="11.49" arrivalSpeed="10.20" duration="31.25" routeLength="172.24" waitingTime="3.75" waitingCount="2" stopTime="0.00" timeLoss="15.82" rerouteNo="0" devices="tripinfo_VEH_26 emissions_VEH_26" vType="sumo_car@VEH_26" speedFactor="0.87" vaporized="">
        <emissions CO_abs="220.047982" CO2_abs="81021.157779" HC_abs="1.457820" PMx_abs="4.262690" NOx_abs="25.624426" fuel_abs="26265.795891" electricity_abs="0"/>
    </tripinfo>
    <tripinfo id="VEH_13" depart="30.00" departLane="-E4_1" departPos="5.10" departSpeed="0.00" departDelay="0.00" arrival="99.25" arrivalLane="-758088375#0_1" arrivalPos="24.98" arrivalSpeed="8.62" duration="69.25" routeLength="212.81" waitingTime="38.00" waitingCount="1" stopTime="0.00" timeLoss="49.19" rerouteNo="0" devices="tripinfo_VEH_13 emissions_VEH_13" vType="sumo_car@VEH_13" speedFactor="1.05" vaporized="">
        <emissions CO_abs="311.494339" CO2_abs="127459.604962" HC_abs="2.865134" PMx_abs="5.282591" NOx_abs="6.485482" fuel_abs="41312.618908" electricity_abs="0"/>
    </tripinfo>
    <tripinfo id="VEH_8" depart="21.00" departLane="921020465#1_1" departPos="5.10" departSpeed="0.00" departDelay="0.00" arrival="101.75" arrivalLane="E4_1" arrivalPos="50.96" arrivalSpeed="12.25" duration="80.75" routeLength="425.49" waitingTime="15.50" waitingCount="3" stopTime="0.00" timeLoss="37.74" rerouteNo="0" devices="tripinfo_VEH_8 emissions_VEH_8" vType="sumo_car@VEH_8" speedFactor="0.89" vaporized="">
        <emissions CO_abs="741.230697" CO2_abs="176689.393290" HC_abs="4.170800" PMx_abs="10.393297" NOx_abs="28.535970" fuel_abs="57287.196109" electricity_abs="0"/>
    </tripinfo>
    <tripinfo id="VEH_18" depart="47.00" departLane="921020465#1_1" departPos="5.10" departSpeed="0.00" departDelay="0.00" arrival="103.25" arrivalLane="E4_1" arrivalPos="50.96" arrivalSpeed="13.03" duration="56.25" routeLength="425.49" waitingTime="0.00" waitingCount="0" stopTime="0.00" timeLoss="15.71" rerouteNo="0" devices="tripinfo_VEH_18 emissions_VEH_18" vType="sumo_car@VEH_18" speedFactor="0.94" vaporized="">
        <emissions CO_abs="214.366548" CO2_abs="106212.313745" HC_abs="3.815974" PMx_abs="9.601064" NOx_abs="10.748116" fuel_abs="34431.995076" electricity_abs="0"/>
    </tripinfo>
    <tripinfo id="VEH_20" depart="49.00" departLane="921020465#1_1" departPos="5.10" departSpeed="0.00" departDelay="0.00" arrival="104.75" arrivalLane="E4_1" arrivalPos="50.96" arrivalSpeed="13.70" duration="55.75" routeLength="425.49" waitingTime="0.00" waitingCount="0" stopTime="0.00" timeLoss="20.18" rerouteNo="0" devices="tripinfo_VEH_20 emissions_VEH_20" vType="sumo_car@VEH_20" speedFactor="1.16" vaporized="">
        <emissions CO_abs="260.190061" CO2_abs="125191.858763" HC_abs="3.058487" PMx_abs="9.202580" NOx_abs="39.390500" fuel_abs="40585.935075" electricity_abs="0"/>
    </tripinfo>
    <tripinfo id="VEH_9" depart="23.00" departLane="-1169441386_1" departPos="5.10" departSpeed="0.00" departDelay="0.00" arrival="126.00" arrivalLane="694116204#2_2" arrivalPos="45.20" arrivalSpeed="12.85" duration="103.00" routeLength="175.49" waitingTime="77.25" waitingCount="1" stopTime="0.00" timeLoss="89.46" rerouteNo="0" devices="tripinfo_VEH_9 emissions_VEH_9" vType="sumo_car@VEH_9" speedFactor="0.94" vaporized="">
        <emissions CO_abs="280.654661" CO2_abs="197926.590329" HC_abs="1.859510" PMx_abs="4.816462" NOx_abs="72.349292" fuel_abs="64165.856209" electricity_abs="0"/>
    </tripinfo>
    <tripinfo id="VEH_22" depart="51.50" departLane="921020465#1_1" departPos="5.10" departSpeed="0.00" departDelay="0.50" arrival="138.25" arrivalLane="E4_1" arrivalPos="50.96" arrivalSpeed="12.52" duration="86.75" routeLength="425.49" waitingTime="21.25" waitingCount="4" stopTime="0.00" timeLoss="48.79" rerouteNo="0" devices="tripinfo_VEH_22 emissions_VEH_22" vType="sumo_car@VEH_22" speedFactor="1.01" vaporized="">
        <emissions CO_abs="309.580244" CO2_abs="198656.911181" HC_abs="4.369691" PMx_abs="10.494666" NOx_abs="64.360103" fuel_abs="64403.948449" electricity_abs="0"/>
    </tripinfo>
    <tripinfo id="VEH_28" depart="60.00" departLane="921020465#1_1" departPos="6.60" departSpeed="0.00" departDelay="3.00" arrival="141.50" arrivalLane="E4_1" arrivalPos="50.96" arrivalSpeed="10.76" duration="81.50" routeLength="423.99" waitingTime="1.00" waitingCount="1" stopTime="0.00" timeLoss="38.40" rerouteNo="0" devices="tripinfo_VEH_28 emissions_VEH_28" vType="sumo_transporter@VEH_28" speedFactor="0.97" vaporized="">
        <emissions CO_abs="2186.030267" CO2_abs="150325.069936" HC_abs="44.046523" PMx_abs="16.842056" NOx_abs="205.925659" fuel_abs="48723.505586" electricity_abs="0"/>
    </tripinfo>
    <tripinfo id="VEH_6" depart="6.75" departLane="1162834479#1_1" departPos="0.20" departSpeed="0.00" departDelay="1.75" arrival="142.75" arrivalLane="183419043#1_1" arrivalPos="11.49" arrivalSpeed="8.85" duration="136.00" routeLength="931.93" waitingTime="2.75" waitingCount="2" stopTime="0.00" timeLoss="21.61" rerouteNo="0" devices="tripinfo_VEH_6 emissions_VEH_6" vType="sumo_transporter@VEH_6" speedFactor="0.92" vaporized="">
        <emissions CO_abs="1568.452097" CO2_abs="327705.621213" HC_abs="7.195272" PMx_abs="24.113034" NOx_abs="123.479641" fuel_abs="106255.346762" electricity_abs="0"/>
    </tripinfo>
    <tripinfo id="VEH_34" depart="72.50" departLane="921020465#1_1" departPos="6.60" departSpeed="0.00" departDelay="4.50" arrival="143.25" arrivalLane="E4_1" arrivalPos="50.96" arrivalSpeed="11.01" duration="70.75" routeLength="423.99" waitingTime="0.00" waitingCount="0" stopTime="0.00" timeLoss="29.56" rerouteNo="0" devices="tripinfo_VEH_34 emissions_VEH_34" vType="sumo_transporter@VEH_34" speedFactor="1.09" vaporized="">
        <emissions CO_abs="698.828983" CO2_abs="215949.491871" HC_abs="175.222080" PMx_abs="186.469190" NOx_abs="924.165134" fuel_abs="69397.710719" electricity_abs="0"/>
    </tripinfo>
    <tripinfo id="VEH_32" depart="64.00" departLane="758088375#0_1" departPos="5.10" departSpeed="0.00" departDelay="0.00" arrival="144.75" arrivalLane="25973410#1_1" arrivalPos="32.08" arrivalSpeed="9.60" duration="80.75" routeLength="75.29" waitingTime="64.50" waitingCount="1" stopTime="0.00" timeLoss="72.70" rerouteNo="0" devices="tripinfo_VEH_32 emissions_VEH_32" vType="sumo_car@VEH_32" speedFactor="1.15" vaporized="">
        <emissions CO_abs="45.329507" CO2_abs="134742.006111" HC_abs="2.577992" PMx_abs="2.904847" NOx_abs="43.645357" fuel_abs="43686.848541" electricity_abs="0"/>
    </tripinfo>
    <tripinfo id="VEH_61" depart="129.00" departLane="183049957#0_1" departPos="5.10" departSpeed="0.00" departDelay="0.00" arrival="144.75" arrivalLane="331752492#2_1" arrivalPos="66.46" arrivalSpeed="13.46" duration="15.75" routeLength="112.21" waitingTime="0.00" waitingCount="0" stopTime="0.00" timeLoss="6.66" rerouteNo="0" devices="tripinfo_VEH_61 emissions_VEH_61" vType="sumo_car@VEH_61" speedFactor="0.97" vaporized="">
        <emissions CO_abs="115.989342" CO2_abs="49457.892242" HC_abs="1.520305" PMx_abs="3.197291" NOx_abs="4.851167" fuel_abs="16032.103474" electricity_abs="0"/>
    </tripinfo>
    <tripinfo id="VEH_35" depart="77.00" departLane="921020465#1_1" departPos="5.10" departSpeed="0.00" departDelay="6.00" arrival="145.00" arrivalLane="E4_1" arrivalPos="50.96" arrivalSpeed="12.36" duration="68.00" routeLength="425.49" waitingTime="2.50" waitingCount="1" stopTime="0.00" timeLoss="29.61" rerouteNo="0" devices="tripinfo_VEH_35 emissions_VEH_35" vType="sumo_car@VEH_35" speedFactor="0.99" vaporized="">
        <emissions CO_abs="332.816456" CO2_abs="136056.392356" HC_abs="2.208645" PMx_abs="9.153446" NOx_abs="44.431060" fuel_abs="44107.611882" electricity_abs="0"/>
    </tripinfo>
    <tripinfo id="VEH_60" depart="128.00" departLane="921020465#1_1" departPos="5.10" departSpeed="0.00" departDelay="0.00" arrival="148.75" arrivalLane="183419043#1_1" arrivalPos="11.49" arrivalSpeed="13.03" duration="20.75" routeLength="172.24" waitingTime="0.00" waitingCount="0" stopTime="0.00" timeLoss="7.36" rerouteNo="0" devices="tripinfo_VEH_60 emissions_VEH_60" vType="sumo_car@VEH_60" speedFactor="1.02" vaporized="">
        <emissions CO_abs="159.579114" CO2_abs="69885.543321" HC_abs="2.216212" PMx_abs="4.740167" NOx_abs="8.202571" fuel_abs="22654.208510" electricity_abs="0"/>
    </tripinfo>
    <tripinfo id="VEH_10" depart="23.00" departLane="-E4_1" departPos="5.10" departSpeed="0.00" departDelay="0.00" arrival="150.50" arrivalLane="-1162834479#1_1" arrivalPos="0.20" arrivalSpeed="10.28" duration="127.50" routeLength="746.01" waitingTime="13.75" waitingCount="2" stopTime="0.00" timeLoss="30.22" rerouteNo="0" devices="tripinfo_VEH_10 emissions_VEH_10" vType="sumo_car@VEH_10" speedFactor="0.86" vaporized="">
        <emissions CO_abs="17.018531" CO2_abs="243771.679115" HC_abs="11.447987" PMx_abs="15.397569" NOx_abs="38.338802" fuel_abs="78337.662941" electricity_abs="0"/>
    </tripinfo>
    <tripinfo id="VEH_17" depart="46.00" departLane="-E4_1" departPos="5.10" departSpeed="0.00" departDelay="0.00" arrival="152.50" arrivalLane="-1162834479#1_1" arrivalPos="0.20" arrivalSpeed="10.41" duration="106.50" routeLength="746.01" waitingTime="0.00" waitingCount="0" stopTime="0.00" timeLoss="11.61" rerouteNo="0" devices="tripinfo_VEH_17 emissions_VEH_17" vType="sumo_car@VEH_17" speedFactor="0.88" vaporized="">
        <emissions CO_abs="0" CO2_abs="0" HC_abs="0" PMx_abs="15.408024" NOx_abs="0" fuel_abs="0" electricity_abs="164.503403"/>
    </tripinfo>
    <tripinfo id="VEH_51" depart="106.00" departLane="-25973410#1_1" departPos="5.10" departSpeed="0.00" departDelay="0.00" arrival="156.75" arrivalLane="183419043#1_1" arrivalPos="11.49" arrivalSpeed="9.92" duration="50.75" routeLength="161.18" waitingTime="21.25" waitingCount="1" stopTime="0.00" timeLoss="29.60" rerouteNo="0" devices="tripinfo_VEH_51 emissions_VEH_51" vType="sumo_car@VEH_51" speedFactor="0.85" vaporized="">
        <emissions CO_abs="189.909968" CO2_abs="92265.690601" HC_abs="1.065934" PMx_abs="3.936455" NOx_abs="17.087301" fuel_abs="29914.917054" electricity_abs="0"/>
    </tripinfo>
    <tripinfo id="VEH_52" depart="107.00" departLane="-183419042#1_1" departPos="5.10" departSpeed="0.00" departDelay="0.00" arrival="164.75" arrivalLane="331752492#2_1" arrivalPos="66.46" arrivalSpeed="13.85" duration="57.75" routeLength="268.79" waitingTime="24.75" waitingCount="1" stopTime="0.00" timeLoss="38.34" rerouteNo="0" devices="tripinfo_VEH_52 emissions_VEH_52" vType="sumo_car@VEH_52" speedFactor="1.17" vaporized="">
        <emissions CO_abs="315.834793" CO2_abs="149824.640195" HC_abs="53.189535" PMx_abs="91.542878" NOx_abs="527.492967" fuel_abs="48158.258859" electricity_abs="0"/>
    </tripinfo>
    <tripinfo id="VEH_19" depart="48.00" departLane="758088375#0_1" departPos="5.10" departSpeed="0.00" departDelay="0.00" arrival="165.25" arrivalLane="-E13_1" arrivalPos="59.59" arrivalSpeed="12.97" duration="117.25" routeLength="892.87" waitingTime="4.50" waitingCount="1" stopTime="0.00" timeLoss="14.27" rerouteNo="0" devices="tripinfo_VEH_19 emissions_VEH_19" vType="sumo_car@VEH_19" speedFactor="0.94" vaporized="">
        <emissions CO_abs="358.806712" CO2_abs="225302.890274" HC_abs="5.235541" PMx_abs="20.153517" NOx_abs="12.224875" fuel_abs="73024.812888" electricity_abs="0"/>
    </tripinfo>
    <tripinfo id="VEH_23" depart="52.00" departLane="758088375#0_1" departPos="5.10" departSpeed="0.00" departDelay="0.00" arrival="166.75" arrivalLane="-E13_1" arrivalPos="59.59" arrivalSpeed="13.38" duration="114.75" routeLength="892.87" waitingTime="0.00" waitingCount="0" stopTime="0.00" timeLoss="15.93" rerouteNo="0" devices="tripinfo_VEH_23 emissions_VEH_23" vType="sumo_car@VEH_23" speedFactor="0.97" vaporized="">
        <emissions CO_abs="343.821717" CO2_abs="216696.505203" HC_abs="5.185551" PMx_abs="19.151701" NOx_abs="13.078589" fuel_abs="70235.369231" electricity_abs="0"/>
    </tripinfo>
    <tripinfo id="VEH_7" depart="20.00" departLane="-183419042#1_1" departPos="5.10" departSpeed="0.00" departDelay="0.00" arrival="174.50" arrivalLane="-1162834479#1_1" arrivalPos="0.20" arrivalSpeed="10.75" duration="154.50" routeLength="1099.60" waitingTime="14.50" waitingCount="3" stopTime="0.00" timeLoss="43.34" rerouteNo="0" devices="tripinfo_VEH_7 emissions_VEH_7" vType="sumo_car@VEH_7" speedFactor="1.05" vaporized="">
        <emissions CO_abs="668.324010" CO2_abs="282593.495518" HC_abs="7.152311" PMx_abs="24.814721" NOx_abs="19.056471" fuel_abs="91597.193305" electricity_abs="0"/>
    </tripinfo>
    <tripinfo id="VEH_64" depart="143.00" departLane="-1169441386_1" departPos="5.10" departSpeed="0.00" departDelay="0.00" arrival="176.00" arrivalLane="694116204#2_2" arrivalPos="45.20" arrivalSpeed="13.77" duration="33.00" routeLength="175.49" waitingTime="7.25" waitingCount="1" stopTime="0.00" timeLoss="20.26" rerouteNo="0" devices="tripinfo_VEH_64 emissions_VEH_64" vType="sumo_car@VEH_64" speedFactor="1.02" vaporized="">
        <emissions CO_abs="314.504151" CO2_abs="94910.341247" HC_abs="2.082299" PMx_abs="4.921602" NOx_abs="30.611091" fuel_abs="30768.478792" electricity_abs="0"/>
    </tripinfo>
    <tripinfo id="VEH_66" depart="145.00" departLane="-1169441386_1" departPos="5.10" departSpeed="0.00" departDelay="0.00" arrival="177.75" arrivalLane="694116204#2_2" arrivalPos="45.20" arrivalSpeed="12.86" duration="32.75" routeLength="175.49" waitingTime="5.75" waitingCount="1" stopTime="0.00" timeLoss="19.05" rerouteNo="0" devices="tripinfo_VEH_66 emissions_VEH_66" vType="sumo_car@VEH_66" speedFactor="0.94" vaporized="">
        <emissions CO_abs="249.814055" CO2_abs="86466.861062" HC_abs="1.656414" PMx_abs="4.711555" NOx_abs="27.950508" fuel_abs="28031.277653" electricity_abs="0"/>
    </tripinfo>
    <tripinfo id="VEH_69" depart="147.25" departLane="-1169441386_1" departPos="5.10" departSpeed="0.00" departDelay="0.25" arrival="179.25" arrivalLane="694116204#2_2" arrivalPos="45.20" arrivalSpeed="12.67" duration="32.00" routeLength="175.49" waitingTime="1.50" waitingCount="1" stopTime="0.00" timeLoss="18.01" rerouteNo="0" devices="tripinfo_VEH_69 emissions_VEH_69" vType="sumo_car@VEH_69" speedFactor="0.91" vaporized="">
        <emissions CO_abs="341.529708" CO2_abs="75761.937351" HC_abs="1.928428" PMx_abs="4.591821" NOx_abs="11.762240" fuel_abs="24563.907863" electricity_abs="0"/>
    </tripinfo>
    <tripinfo id="VEH_37" depart="80.00" departLane="921020465#1_1" departPos="5.10" departSpeed="0.00" departDelay="6.00" arrival="180.75" arrivalLane="E4_1" arrivalPos="50.96" arrivalSpeed="12.46" duration="100.75" routeLength="425.49" waitingTime="28.50" waitingCount="5" stopTime="0.00" timeLoss="61.69" rerouteNo="0" devices="tripinfo_VEH_37 emissions_VEH_37" vType="sumo_car@VEH_37" speedFactor="0.97" vaporized="">
        <emissions CO_abs="453.629390" CO2_abs="210560.072959" HC_abs="3.003171" PMx_abs="9.686820" NOx_abs="70.811364" fuel_abs="68260.844460" electricity_abs="0"/>
    </tripinfo>
    <tripinfo id="VEH_72" depart="150.00" departLane="-1169441386_1" departPos="5.10" departSpeed="0.00" departDelay="0.00" arrival="180.75" arrivalLane="694116204#2_2" arrivalPos="45.20" arrivalSpeed="13.74" duration="30.75" routeLength="175.49" waitingTime="0.00" waitingCount="0" stopTime="0.00" timeLoss="17.95" rerouteNo="0" devices="tripinfo_VEH_72 emissions_VEH_72" vType="sumo_car@VEH_72" speedFactor="1.02" vaporized="">
        <emissions CO_abs="38.233017" CO2_abs="84082.960123" HC_abs="9.477785" PMx_abs="4.552085" NOx_abs="148.063877" fuel_abs="27022.325164" electricity_abs="0"/>
    </tripinfo>
    <tripinfo id="VEH_40" depart="83.00" departLane="921020465#1_1" departPos="5.10" departSpeed="0.00" departDelay="0.00" arrival="182.25" arrivalLane="E4_1" arrivalPos="50.96" arrivalSpeed="12.41" duration="99.25" routeLength="425.49" waitingTime="22.00" waitingCount="4" stopTime="0.00" timeLoss="56.99" rerouteNo="0" devices="tripinfo_VEH_40 emissions_VEH_40" vType="sumo_car@VEH_40" speedFactor="0.90" vaporized="">
        <emissions CO_abs="46.185602" CO2_abs="203414.537508" HC_abs="11.324563" PMx_abs="9.002232" NOx_abs="207.023843" fuel_abs="65383.736498" electricity_abs="0"/>
    </tripinfo>
    <tripinfo id="VEH_73" depart="151.50" departLane="-1169441386_1" departPos="5.10" departSpeed="0.00" departDelay="0.50" arrival="182.25" arrivalLane="694116204#2_2" arrivalPos="45.20" arrivalSpeed="13.49" duration="30.75" routeLength="175.49" waitingTime="0.50" waitingCount="1" stopTime="0.00" timeLoss="17.56" rerouteNo="0" devices="tripinfo_VEH_73 emissions_VEH_73" vType="sumo_car@VEH_73" speedFactor="0.97" vaporized="">
        <emissions CO_abs="171.217456" CO2_abs="71118.584235" HC_abs="2.071962" PMx_abs="4.717215" NOx_abs="5.557699" fuel_abs="23052.880452" electricity_abs="0"/>
    </tripinfo>
    <tripinfo id="VEH_21" depart="50.00" departLane="1162834479#1_1" departPos="0.20" departSpeed="0.00" departDelay="0.00" arrival="182.50" arrivalLane="183419043#1_1" arrivalPos="11.49" arrivalSpeed="10.72" duration="132.50" routeLength="931.93" waitingTime="11.25" waitingCount="1" stopTime="0.00" timeLoss="31.36" rerouteNo="0" devices="tripinfo_VEH_21 emissions_VEH_21" vType="sumo_car@VEH_21" speedFactor="1.02" vaporized="">
        <emissions CO_abs="539.069823" CO2_abs="241190.354489" HC_abs="3.598335" PMx_abs="19.962871" NOx_abs="82.599491" fuel_abs="78191.134390" electricity_abs="0"/>
    </tripinfo>
    <tripinfo id="VEH_77" depart="155.00" departLane="-1169441386_1" departPos="5.10" departSpeed="0.00" departDelay="0.00" arrival="183.75" arrivalLane="694116204#2_2" arrivalPos="45.20" arrivalSpeed="13.62" duration="28.75" routeLength="175.49" waitingTime="0.50" waitingCount="1" stopTime="0.00" timeLoss="15.71" rerouteNo="0" devices="tripinfo_VEH_77 emissions_VEH_77" vType="sumo_car@VEH_77" speedFactor="0.98" vaporized="">
        <emissions CO_abs="4.854976" CO2_abs="82823.372192" HC_abs="4.677899" PMx_abs="4.433193" NOx_abs="12.562936" fuel_abs="26616.924619" electricity_abs="0"/>
    </tripinfo>
    <tripinfo id="VEH_27" depart="56.00" departLane="1162834479#1_1" departPos="0.20" departSpeed="0.00" departDelay="0.00" arrival="186.75" arrivalLane="183419043#1_1" arrivalPos="11.49" arrivalSpeed="10.14" duration="130.75" routeLength="931.93" waitingTime="0.00" waitingCount="0" stopTime="0.00" timeLoss="18.82" rerouteNo="0" devices="tripinfo_VEH_27 emissions_VEH_27" vType="sumo_car@VEH_27" speedFactor="0.92" vaporized="">
        <emissions CO_abs="394.261782" CO2_abs="183157.697205" HC_abs="5.831762" PMx_abs="19.878027" NOx_abs="11.044586" fuel_abs="59377.374058" electricity_abs="0"/>
    </tripinfo>
    <tripinfo id="VEH_48" depart="103.00" departLane="-E4_1" departPos="5.10" departSpeed="0.00" departDelay="0.00" arrival="189.50" arrivalLane="-758088375#0_1" arrivalPos="24.98" arrivalSpeed="7.50" duration="86.50" routeLength="212.81" waitingTime="48.50" waitingCount="2" stopTime="0.00" timeLoss="63.62" rerouteNo="0" devices="tripinfo_VEH_48 emissions_VEH_48" vType="sumo_car@VEH_48" speedFactor="0.90" vaporized="">
        <emissions CO_abs="216.255775" CO2_abs="167600.937010" HC_abs="1.430777" PMx_abs="5.083713" NOx_abs="58.680924" fuel_abs="54334.316516" electricity_abs="0"/>
    </tripinfo>
    <tripinfo id="VEH_14" depart="42.00" departLane="921020465#1_1" departPos="5.10" departSpeed="0.00" departDelay="0.00" arrival="190.00" arrivalLane="-E13_1" arrivalPos="59.59" arrivalSpeed="13.85" duration="148.00" routeLength="1106.96" waitingTime="13.50" waitingCount="1" stopTime="0.00" timeLoss="42.91" rerouteNo="0" devices="tripinfo_VEH_14 emissions_VEH_14" vType="sumo_car@VEH_14" speedFactor="1.12" vaporized="">
        <emissions CO_abs="1252.556973" CO2_abs="319491.745046" HC_abs="208.218033" PMx_abs="29.057310" NOx_abs="493.250792" fuel_abs="103581.830179" electricity_abs="0"/>
    </tripinfo>
    <tripinfo id="VEH_87" depart="175.00" departLane="183049957#0_1" departPos="5.10" departSpeed="0.00" departDelay="0.00" arrival="190.50" arrivalLane="331752492#2_1" arrivalPos="66.46" arrivalSpeed="13.42" duration="15.50" routeLength="112.21" waitingTime="0.00" waitingCount="0" stopTime="0.00" timeLoss="6.52" rerouteNo="0" devices="tripinfo_VEH_87 emissions_VEH_87" vType="sumo_car@VEH_87" speedFactor="0.98" vaporized="">
        <emissions CO_abs="0" CO2_abs="0" HC_abs="0" PMx_abs="2.934007" NOx_abs="0" fuel_abs="0" electricity_abs="59.472912"/>
    </tripinfo>
    <tripinfo id="VEH_55" depart="117.00" departLane="-E4_1" departPos="5.10" departSpeed="0.00" departDelay="0.00" arrival="191.25" arrivalLane="-758088375#0_1" arrivalPos="24.98" arrivalSpeed="8.34" duration="74.25" routeLength="212.81" waitingTime="34.25" waitingCount="2" stopTime="0.00" timeLoss="53.80" rerouteNo="0" devices="tripinfo_VEH_55 emissions_VEH_55" vType="sumo_car@VEH_55" speedFactor="1.00" vaporized="">
        <emissions CO_abs="439.795969" CO2_abs="148891.697339" HC_abs="8.384545" PMx_abs="5.455798" NOx_abs="36.121142" fuel_abs="48271.122345" electricity_abs="0"/>
    </tripinfo>
    <tripinfo id="VEH_16" depart="45.00" departLane="921020465#1_1" departPos="5.10" departSpeed="0.00" departDelay="0.00" arrival="191.50" arrivalLane="-E13_1" arrivalPos="59.59" arrivalSpeed="12.69" duration="146.50" routeLength="1106.96" waitingTime="0.00" waitingCount="0" stopTime="0.00" timeLoss="22.74" rerouteNo="0" devices="tripinfo_VEH_16 emissions_VEH_16" vType="sumo_car@VEH_16" speedFactor="0.93" vaporized="">
        <emissions CO_abs="365.025839" CO2_abs="260958.299402" HC_abs="5.769470" PMx_abs="24.229524" NOx_abs="82.429172" fuel_abs="84603.888422" electricity_abs="0"/>
    </tripinfo>
    <tripinfo id="VEH_89" depart="177.75" departLane="183049957#0_1" departPos="2.30" departSpeed="0.00" departDelay="0.75" arrival="192.25" arrivalLane="331752492#2_1" arrivalPos="66.46" arrivalSpeed="14.32" duration="14.50" routeLength="115.01" waitingTime="0.00" waitingCount="0" stopTime="0.00" timeLoss="5.73" rerouteNo="0" devices="tripinfo_VEH_89 emissions_VEH_89" vType="sumo_motorcycle@VEH_89" speedFactor="1.04" vaporized="">
        <emissions CO_abs="84.293916" CO2_abs="8336.161047" HC_abs="8.595763" PMx_abs="2.201034" NOx_abs="10.833544" fuel_abs="2702.484171" electricity_abs="0"/>
    </tripinfo>
    <tripinfo id="VEH_15" depart="43.00" departLane="1162834479#1_1" departPos="0.20" departSpeed="0.00" departDelay="0.00" arrival="195.25" arrivalLane="694116204#2_1" arrivalPos="45.20" arrivalSpeed="13.76" duration="152.25" routeLength="992.43" waitingTime="22.25" waitingCount="2" stopTime="0.00" timeLoss="44.88" rerouteNo="0" devices="tripinfo_VEH_15 emissions_VEH_15" vType="sumo_car@VEH_15" speedFactor="0.99" vaporized="">
        <emissions CO_abs="964.112739" CO2_abs="270906.909695" HC_abs="5.506067" PMx_abs="22.647449" NOx_abs="47.064635" fuel_abs="87835.480469" electricity_abs="0"/>
    </tripinfo>
    <tripinfo id="VEH_76" depart="155.00" departLane="758088375#0_1" departPos="5.10" departSpeed="0.00" departDelay="0.00" arrival="202.50" arrivalLane="25973410#1_1" arrivalPos="32.08" arrivalSpeed="7.95" duration="47.50" routeLength="75.29" waitingTime="30.50" waitingCount="1" stopTime="0.00" timeLoss="37.83" rerouteNo="0" devices="tripinfo_VEH_76 emissions_VEH_76" vType="sumo_car@VEH_76" speedFactor="0.96" vaporized="">